           2549
Lattice="32.7232154959 0.0 0.0 0.0 32.7232154959 0.0 0.0 0.0 32.7232154959 "  energy=-87858.4814898298  iteration=18 time=0.044399729666838514 pbc="T T T"  
O        1.39645790     1.39276303     1.31123535
O        4.10075793     4.04491249     1.41527953
O        4.09011315    -1.37136821     4.04768773
O        1.35059916     1.33345425     4.04067589
O        4.06003928     1.35327379     4.08081164
O        1.32992388     4.06057333     4.10509122
O        4.10623536     1.33822635     1.35630006
O        1.39612161     4.11175590     1.38086534
O        1.29068177     1.42367751     6.74881780
O        4.04183143     4.10237909     6.81229086
O        4.14098055     1.64152850     9.61021981
O        1.31871746     1.41188489     9.63604355
O        4.10073917     4.53416142     9.51053584
O        1.34726919     4.06646969     9.56498172
O        4.14699574     1.42004872     6.77702574
O        1.32974067     4.10878973     6.83856338
O        4.04358175     1.31873867    12.28485091
O        4.17389864     4.01060121    12.18366208
O        6.78378489     1.35598707    14.97452651
O        1.20866847     1.68743303    15.15068332
O        4.03507739     4.00216444    14.99156715
O        1.36492851     3.95097958    12.50235942
O        4.08437223     1.16588139    14.96574022
O        1.32762258     1.27640202    12.35452157
O        1.35293745     1.32093052   -14.66167135
O        4.18899244     1.23188695   -14.95340923
O        3.71290604     1.41765684   -12.30386449
O        1.37612772     1.39595599    -9.97702802
O        4.14500910     4.13577247   -12.20647113
O        1.44079517     3.71661230   -12.39988706
O        4.08798401    -1.44184564   -15.04308710
O        1.27820253     4.28714292   -15.12661840
O        1.32658119    -1.34008744    -9.50824525
O        4.14010603     4.13797933    -9.51297575
O        4.11947490     1.36811034    -6.78004187
O        1.43649872     1.30436520    -6.92936347
O        4.01152350     4.10043988    -6.82355181
O        1.24181272     4.11809283    -6.80593798
O        4.04785906     1.45430476    -9.45044407
O        1.48108029     4.29221620    -9.66488839
O        1.37071885     1.37656190    -4.16541092
O        4.11839439     4.09595201    -4.12162718
O        6.85584167     1.34254874    -1.36602894
O        1.42977844     1.36695150    -1.41697799
O        4.03534934     4.03871003    -1.42945523
O        1.34196309     4.05758722    -1.34060000
O        4.09094278     1.36046017    -4.07560277
O        1.36619225     4.08362624    -4.08987900
O        3.95301641     6.89079117     1.52399584
O        4.10892556     9.58757261     1.34943285
O        4.04820393     4.09584226     4.10503389
O        1.33641648     6.79959986     4.04154974
O        4.07039335     9.54157088     4.06526772
O        1.33422034     9.53861540     4.12673353
O        4.03713262     6.79525050     4.29679295
O        1.39346709     9.57458004     1.40904798
O        1.32457941     6.80016723     6.76300427
O        4.12161183     9.56289837     6.76101943
O        6.51501444     6.82180944     9.53193943
O        1.72435791     6.91468260     9.46513218
O        4.04363284     9.18790745     9.47436807
O        1.33017345     9.60709397     9.60142981
O        4.07228948     6.84353735     7.14060697
O        1.39110398     9.51135013     6.85174771
O        1.35121253     6.98214214    12.31491766
O        4.11305209     9.63618009    12.19107684
O        4.17634272     6.84069558    14.84936040
O        1.39296757     6.42714250    15.10431058
O        4.00073317     9.43685569    14.96787328
O        1.21461740     9.23872565    15.29489504
O        4.11958319     6.86070656    11.83994693
O        1.29078103     9.60270125    12.34397133
O        4.00029897     6.68521947   -15.12236040
O        3.75143058     9.37016275   -14.95702234
O        4.02546005     6.84171000   -12.34170609
O        1.28797379     6.56029505   -12.32947474
O        4.13590506     9.52578507   -12.16530398
O        1.27197221     9.37385378   -12.38596984
O        4.10745278     4.04752217   -14.89294529
O        1.25558469     7.17823572   -15.00138237
O        1.36639857     7.06673737    -9.60406842
O        4.10122086     9.54977176    -9.48314811
O        4.08112056     6.81869541    -6.84290731
O        1.36764105     6.79916512    -6.87007046
O        1.44076877     9.48210400    -6.87397482
O        4.10956348     6.84570938    -9.58859188
O        1.37316902     9.89037086    -9.58022403
O        1.33809686     6.79077978    -4.13892544
O        4.13349613     9.54014187    -4.06819758
O        3.96989800     6.87950617    -1.38978241
O        1.27279147     6.84150830     1.31397337
O        3.88543700     9.56137366    -1.35434684
O        1.00280174     9.49675148    -1.32555679
O        4.06490882     6.80801853    -4.10514320
O        1.45447626     9.47289421    -4.04072035
O        1.41349021    12.29908528     1.34136933
O        4.08009188    15.03507368     1.34208948
O        4.15382994    12.27202306     4.08732511
O        1.39323753    12.26888761     4.05779332
O        4.04836216    15.00273091     4.06025562
O        1.34314218    15.00725424     4.06618074
O        4.11108592    12.31099886     1.36903912
O        1.34534236    15.01219703     1.36157696
O        1.32500957    12.22467160     6.76936427
O        4.14651851    14.96113298     6.78203814
O        4.10739469    12.03663432     9.49923543
O        1.37503675    12.29155035     9.47126588
O        4.16106276    14.81756276     9.61917768
O        1.31393391    14.96568761     9.60272607
O        4.07456055    12.26647294     6.80430735
O        1.30580807    14.92814594     6.75933895
O        1.27930138    12.39657766    12.17257097
O        4.05718843    15.38307132    12.32440322
O        4.33513080    12.42533107    14.98983760
O        1.43392074    12.33059387    15.01589544
O        4.08401435    15.12919963    15.00495994
O        1.36466478    14.98711870    15.02210816
O        4.08837648    12.56480162    12.16169700
O        1.25122884    15.06326029    12.31889169
O        1.35823164    12.07655514   -14.88814212
O        4.14234992    15.03727306   -14.98806123
O        4.11514012    15.03111480    -9.56087935
O        1.42395300    12.20387343   -11.75222569
O        4.22009487    12.36517968   -12.15256486
O        1.28496457    15.02467578   -12.20162920
O        4.08885119    12.36879340   -14.92686455
O        1.44270126    15.02933767   -15.01487252
O        3.75420332    12.31126489    -9.45159028
O        4.04381281    15.05085803   -12.28249273
O        4.12679611     9.52621541    -6.77680387
O        1.39972020    12.31425538    -7.12100722
O        4.07882802    14.96731379    -6.82743767
O        1.37367407    15.04149173    -6.77868935
O        4.10471408    12.23296701    -6.76276881
O        1.39008524    14.65348155    -9.47138288
O        1.40517448    12.30706885    -4.13651339
O        3.90139354    14.97351492    -4.10088311
O        4.12004812    12.27987993    -1.35763205
O        1.42811100    12.24773184    -1.37794279
O        4.06595638    15.00009070    -1.39239992
O        1.33454747    14.95416074    -1.33471018
O        4.09059638    12.26166180    -4.07609118
O        1.01965455    15.00937480    -4.06659370
O        1.34566263   -14.97999520     1.32871002
O        4.11236842   -15.01268614     4.18134668
O        1.39331648   -14.99255014     4.05087315
O        4.03564491   -12.29978604     4.11917186
O        1.32590026   -12.25415480     4.07101585
O        4.04259066   -14.98363762     1.45274309
O        1.52461263   -12.26409335     1.36658855
O        1.29104234   -14.94049122     6.74520446
O        4.12214384   -12.20490910     6.81006032
O        4.05259011   -15.02170411     9.96100506
O        1.24561204   -14.91476605     9.58207580
O        3.94476884   -12.30593487     9.47737109
O        1.26971772   -12.22027392     9.48575352
O        4.11137607   -14.90450706     6.93256698
O        1.38503584   -12.24314489     6.78983163
O        1.67784917   -14.97035066    12.30893586
O        4.07134824   -12.71247594    12.27468611
O        4.02910143   -14.83126822    14.71121082
O        1.31321073   -15.04798022    15.00716366
O        4.12051910   -12.03606479    15.08013581
O        1.27805963   -12.38420841    15.00500447
O        6.37614594   -15.10063842    12.38226609
O        1.24590143   -12.30344715    12.16323699
O        1.46012016   -14.90781776   -15.03073134
O        4.12984686   -12.31190824   -14.93106798
O        4.12715896   -14.99259713   -12.35374083
O        1.42362590   -15.03207022   -12.20329433
O        4.13157979   -12.30242432   -12.24790227
O        1.44415756   -12.20032236   -12.19443088
O        4.12973925   -14.97732523   -15.16729815
O        1.39487434   -11.91387983   -15.04556136
O        1.35463466   -15.20279081    -9.50985665
O        4.09941702   -12.29553950    -9.54838923
O        4.10321043   -15.02411961    -6.85779284
O        1.39539816   -14.97869254    -6.81960379
O        4.09651585   -12.29313028    -6.83810993
O        1.35339512   -12.26619849    -6.80410013
O        4.08736051   -15.00458588    -9.59151913
O        1.37242965   -12.39627610    -9.51650726
O        1.32027577   -14.96132083    -4.10012716
O        4.00167568   -12.20847813    -4.14709040
O        4.00403581   -15.02961639    -1.27811444
O        1.31403582   -15.02553011    -1.39227276
O        4.00993458   -12.18574444    -1.30464101
O        1.31860254   -12.29047166    -1.34616926
O        3.99359705   -15.06308033    -4.14569457
O        1.30962885   -12.25340530    -4.07319326
O        1.32324495    -9.54452242     1.35992762
O        4.08521756    -6.79791133     1.37368149
O        4.10964989    -9.56335462     4.07607550
O        1.39611275    -9.52781491     4.09860054
O        4.06114108    -6.83785170     4.08544380
O        1.32746684    -6.81493837     4.08440831
O        4.00579723    -9.51265835     1.33791284
O        1.37257070    -6.81169058     1.36213483
O        1.33997934    -9.52539270     6.83142680
O        4.06003964    -6.80033036     6.79670598
O        4.28857143    -9.44165782     9.60666094
O        1.50059898    -9.54869629     9.57467871
O        4.12050372    -6.73985223     9.50089269
O        1.38440743    -6.83745245     9.52547789
O        4.04252508    -9.49377590     6.80855917
O        1.34859726    -6.81937909     6.80431360
O        1.29001746    -9.50555256    12.30453096
O        4.14226483    -6.82244575    12.20430951
O        4.15400975    -7.26430379    14.93696599
O        1.55063013    -9.55615655    15.33865223
O        1.47571519    -6.79877616    14.94184498
O        1.41770426    -6.81595402    12.25054058
O        4.07795746    -9.57288126    12.55277006
O       -1.30103345    -6.81101592    12.17191668
O        3.81398129    -9.63121138   -15.33110575
O        1.45288143    -7.23311778   -14.90210140
O        4.22042277    -9.62518815   -12.48119573
O        1.37558190    -9.51802647   -12.66385525
O        4.16666848    -6.79196933   -12.33319794
O        4.11680343    -6.82922980   -15.05919047
O        1.31688278    -6.60501010   -12.27804945
O        1.32376343    -9.64872603    -9.64689562
O        7.03636070    -6.82970350    -9.53107696
O        4.08372963    -9.55106753    -6.82530276
O        1.36612882    -9.55086640    -6.87968610
O        4.09960796    -6.82737272    -6.79981697
O        1.37888441    -6.83554672    -6.78773952
O        4.15529961    -9.60461133    -9.55608448
O        1.34380421    -6.78577064    -9.47273656
O        1.38080153    -9.54051251    -4.12076500
O        4.10057632    -6.79892357    -4.08137871
O        1.36211037    -9.54300035    -1.37807492
O        4.09983443    -6.80056891    -1.35555999
O        1.38193381    -6.80201274    -1.35700057
O        4.11942483    -9.51482465    -4.09713090
O        1.37987761    -6.81688689    -4.07481616
O        1.41505574    -4.09012002     1.38547705
O        3.89505969    -1.36783776     1.34388599
O        4.09626255    -4.10452330     4.09313699
O        1.38448425    -4.10356365     4.09957573
O        1.00401225    -1.36699539     1.34224310
O        1.41332774    -1.34150786    -1.37143372
O        4.11699394    -4.07812528     1.36570611
O        1.35180917    -4.10707851     6.81440942
O        4.14279997    -1.41323215     6.74365241
O        4.21052411    -4.02471968     9.55719913
O        1.38951758    -4.12262438     9.51174269
O        4.15064933    -1.30653900     9.58071607
O        1.30952054    -1.42838573     9.59868690
O        4.07790147    -4.09657550     6.82920551
O        1.29410623    -1.41356477     6.75248599
O        1.34955686    -4.11844696    12.23169320
O        4.07429414    -1.38659406    12.27136525
O        3.97711091    -4.38670784    15.03824295
O        1.24535531    -3.92501856    14.92927372
O        4.08990510    -1.57913936    14.97109210
O        1.39707430    -1.14394179    15.04140327
O        4.10074296    -4.10671746    12.29886057
O        1.35497064    -1.41059417    12.30315328
O        1.48778724    -4.21780068   -14.97998755
O        1.39523437    -1.44785581   -14.98074168
O        4.12241558    -4.10801430   -12.24844715
O        1.42794325    -3.84242547   -12.28246358
O        4.19287197    -1.41495825   -12.34762553
O        1.42417695    -1.01814954   -12.23951573
O        4.19716004    -4.13710314   -14.98555406
O        4.02270493    -1.39284186    -9.50433130
O        4.08627637    -4.09592838    -6.80568455
O        1.34527382    -4.11401846    -6.80755681
O        4.07563130    -1.36776751    -6.80679605
O        1.35468392    -1.39682705    -6.79695358
O        4.24423462    -6.78126260    -9.49509906
O        1.35215826    -4.07153722    -9.54606339
O        1.37800996    -4.08637958    -4.07315114
O        4.09737533    -1.35889544    -4.08782856
O        4.08192746    -4.09504602    -1.36530378
O        1.37403492    -4.06761323    -1.34341781
O        4.13815838     1.34287835    -1.35501704
O        4.11783179    -1.37674392    -1.36731767
O        4.09464419    -4.08300157    -4.08975137
O        1.36891091    -1.35618178    -4.08678057
O        6.81660892     1.28013600     1.36275196
O        9.96916329     4.05914039     1.32421475
O        9.50708251     1.34408590     4.10291857
O        6.79300911     1.33546485     4.08754596
O        9.56639408     4.01894313     4.16798439
O        6.73523039     4.03023955     4.19190287
O        9.52849142     1.35649802     1.39014582
O        6.97649292     3.95792118     1.38307980
O        6.85291364     1.39974529     6.82331784
O        9.49528524     4.07578898     6.85245254
O        9.52176461     1.40028766     9.54845659
O        6.80942296     1.29883029     9.53447824
O        9.56385791     4.12121120     9.56399681
O        6.84255732     4.05435135     9.58437272
O        9.58809040     1.36357010     6.82287465
O        6.77910131     4.11920284     6.87790691
O        6.78078737     1.37422737    12.26131508
O        9.49611053    -1.30692732    15.16603466
O        9.50850753     1.37319677    14.99673216
O        9.52002282     4.07236753    15.01071851
O        6.77378284     4.07690244    15.00010302
O        9.50593943     1.33300063    12.27514482
O        6.86030858     4.08660025    12.29436810
O        6.83967700     1.35356526   -15.04484735
O        9.54000630     4.08023529   -14.98892913
O        9.45373772     1.01639933   -12.23533742
O        6.71045823     1.41313342   -12.35218821
O        9.56858556     3.89252819   -12.26241830
O        6.84982911     4.10401593   -12.28278772
O        9.52569932     1.35983574   -14.99084769
O        6.82210991     4.05545081   -15.02025225
O        6.86946323     1.40822977    -9.51262937
O        9.51590605     4.11201017    -9.54326446
O        9.51568081     1.37134988    -6.79747527
O        6.81623574     1.36196489    -6.81186494
O        9.47120673     4.09967901    -6.81975008
O        6.75827255     4.09051404    -6.82977278
O        9.56422931     1.38550809    -9.50800092
O        6.82269051     4.11343957    -9.55758578
O        6.81607985     1.37379871    -4.08745813
O        9.66524663     4.09483588    -4.09663549
O        9.58813691     1.39813148    -1.33905657
O        9.54704052     4.12798932    -1.40205798
O        6.87265540     4.03789878    -1.43573116
O        9.53490734     1.37204127    -4.06555007
O        6.87062068     4.09895751    -4.12813490
O        6.75680586     6.95830174     1.35613808
O        9.56002739     9.57588309     1.35704812
O        9.57221638     6.85088808     4.11598824
O        6.72638005     6.87732294     4.16481561
O        9.53327804     9.53968861     4.08045068
O        6.80483795     9.57467078     4.05750553
O        9.54004920     6.89000215     1.27362699
O        6.83604709     9.64991181     1.34115253
O        6.82274903     6.84236466     6.83248290
O        9.55627600     9.53281059     6.79873382
O        9.36055765     6.82532751     9.51763953
O        6.84761225     6.79543177    12.26180028
O        9.52177724     9.53187610     9.49935485
O        6.80856175     9.58833392     9.45656411
O        9.53576999     6.80674795     6.81706385
O        6.83716992     9.56401416     6.76629042
O        9.54543009     6.78272887    12.22873325
O        9.60927853     9.47131297    12.17747577
O        9.62897961     6.74019693    14.92767842
O        6.81208792     6.81078546    14.93998550
O        9.70040965     9.55261503    14.97504765
O        6.74664160     9.71957534    14.92399688
O        9.56888199     4.05884752    12.28012270
O        6.79394570     9.48912429    12.14259664
O        6.69934760     6.74450258   -14.94118770
O        9.54389943     9.62386826   -14.94754599
O        9.51204714     6.72571182   -12.24023638
O        6.77581176     6.83413282   -12.23855571
O        9.53900335     9.49771205   -12.26037260
O        6.83632055     9.56823982   -12.19630393
O        9.58292508     6.77608839   -14.93631081
O        6.66553040     9.56286591   -14.83788517
O        6.86607419     6.83811906    -9.53964784
O        9.53087497     9.54957267    -9.54339314
O        9.49408524     6.82351720    -6.83248194
O        6.79025015     6.81641665    -6.84155989
O        9.54317922     9.55227172    -6.81542737
O        6.83032647     9.54367677    -6.79316577
O        9.64670706     6.82634877    -9.54166782
O        6.81521559     9.57041254    -9.49851722
O        6.78352966     6.81068662    -4.13323595
O        9.55739414     9.53725270    -4.08956660
O        9.50840824     6.82536327    -1.41903040
O        6.82733743     6.87841271    -1.44727227
O        9.48196344     9.54649663    -1.37056132
O        6.69859605     9.57254043    -1.36240754
O        9.52084507     6.81042693    -4.11494283
O        6.83945696     9.54566816    -4.07878858
O        6.81813096    12.38428211     1.38660295
O        9.61783298    14.95530546     1.32353342
O        9.74387113    12.23250944     4.06397618
O        6.92821810    12.26895043     4.12719848
O        9.57062036    14.90033516     4.17941765
O        6.74668549    14.96008361     4.16768691
O        9.52309193    12.27662567     1.35684421
O        6.77244516    15.13485710     1.31476633
O        6.81301912    12.27016638     6.87255482
O        9.52937752    14.94741761     6.87848661
O        9.53136150    12.23959938     9.50658105
O        6.81576608    12.29732816     9.66743757
O        9.55873695    14.94569405     9.60521743
O        6.84569144    15.02010951     9.55683581
O        9.54947727    12.24586070     6.79159206
O        6.83402569    15.00243855     6.86269908
O        6.74487670    12.31003747    12.49206902
O        9.50161237    14.99823226    12.32388922
O        9.29233512    12.36180256    15.04374202
O        9.51375137    15.04738528    15.04790092
O        6.80607021    14.66447050    14.98848095
O        9.60064652    12.30799471    12.19318661
O        6.79610079    14.98859524    12.25441642
O        6.88963944    12.35700576   -15.19569615
O        9.56075412    15.02494938   -14.95924079
O        9.54932873    12.27160903   -12.24684362
O        6.86825928    12.28391394   -12.38272795
O        9.51514463    15.01664602   -12.25491092
O        6.79551709    15.00398439   -12.28149085
O        9.57999953    12.32200507   -14.97050302
O        6.86314636    15.06553731   -15.00508417
O        6.63521262    12.29110652    -9.59752614
O        9.53386789    14.99250569    -9.54373586
O        9.53521471    12.27303528    -6.82647779
O        6.81689318    12.26645784    -6.85127232
O        9.52588776    14.99101435    -6.82718891
O        6.79508375    14.99193238    -6.82706786
O        9.43241105    12.26752182    -9.54385572
O        6.81761313    14.99755051    -9.55564420
O        6.81409915    12.25905733    -4.10461384
O        9.49121216    14.95727416    -4.11183815
O        9.56139647    12.23828994    -1.37858190
O        6.82856665    12.27844428    -1.35996077
O        9.53191693    14.93933041    -1.39350060
O        6.79694725    14.98949511    -1.39521631
O        9.53673782    12.25544338    -4.10178568
O        6.71096048    14.96607651    -4.10896695
O        6.71021590   -14.55847698     1.29024668
O        9.05525909   -12.22850913     1.37719939
O        9.78741223   -14.99715737     4.15763707
O        6.84674209   -14.91834182     4.14249963
O        9.51111259   -12.17318503     4.11742471
O        6.74846397   -12.19109677     3.74160758
O        9.54085708   -14.98798031     1.20512004
O        4.38699520   -12.24780116     1.38993665
O        6.80346036   -14.97895481     6.83679805
O        9.52677555   -12.28049248     6.74475657
O        9.53349125   -15.11131693     9.58849024
O        6.73068194   -14.97420852     9.50038837
O        9.56669987   -12.15832477     9.49968393
O        6.75449413   -12.05544899     9.35186255
O        9.47218931   -15.10424829     6.79895389
O        6.84919259   -12.25387982     6.58606931
O        6.82304461   -15.19062403    15.05456841
O       10.02372405   -12.21755535    12.30330124
O        9.56192478   -15.00532857    15.07299509
O        9.58158648   -12.34205822    15.10754018
O        6.77740265   -12.43924991    15.17561182
O        9.40372141   -15.02990427    12.40538653
O        6.89698534   -12.31887269    12.37626821
O        6.83617458   -14.95807106   -14.96084028
O        9.57776898   -12.28359412   -14.93891427
O        9.55707779   -14.96566585   -12.25970516
O        6.84185452   -15.00064558   -12.25992213
O        9.56511856   -12.21133650   -12.24992530
O        6.85122171   -12.27348391   -12.21382743
O        9.55108260   -14.99073377   -14.95659740
O        6.84676558   -12.23366155   -14.89912556
O        6.83555411   -14.99428813    -9.56506937
O        9.57007000   -12.29709507    -9.55704431
O        9.53699827   -15.00373730    -6.87750037
O        6.80133497   -14.99437157    -6.86278982
O        9.56435771   -12.27923284    -6.85902968
O        6.81864110   -12.27868964    -6.76454571
O        9.59220639   -15.00708343    -9.56639679
O        6.83600702   -12.26970516    -9.49608790
O        6.81521839   -15.05314121    -4.17138502
O        9.46093684   -12.23705109    -4.17861882
O        9.49973716   -15.09977561    -1.42105752
O        6.84576995   -15.04224285    -1.36106752
O        9.65010927   -12.27517144    -1.40426928
O        6.89959056   -12.16363626    -1.01339364
O        9.47540567   -15.07597783    -4.20741585
O        6.81302631   -12.20452089    -3.99408088
O        6.65813945    -9.86425787     1.53238736
O        9.47040715    -6.67096829     1.28302905
O        9.51364533    -9.50770963     4.15572663
O        6.81968936    -9.49726198     4.33312646
O        9.50651171    -6.70925921     4.14672485
O        6.79160569    -6.80515622     4.07345373
O        9.36387278    -9.44321756     1.37889950
O        6.77852798    -6.99453218     1.33986094
O        6.74341109    -9.56360712     7.23853007
O        9.47646588    -6.72445885     6.79872139
O        9.05494943    -9.55351653     9.60557597
O        6.73852892    -7.13722844     9.57207352
O        9.43488780    -6.69789852     9.63650603
O        7.01072151    -4.27029421     9.59643666
O        9.47001953    -9.56574377     6.78734205
O        6.78381643    -6.79474381     6.81442978
O        6.83610580    -9.37088626    12.00483605
O        9.54802286    -6.74039971    12.33500055
O        9.41460286    -9.50810518    15.08094102
O        6.37765862    -9.58080267    14.95837249
O        9.27821680    -6.83424206    14.98870028
O        6.84308649    -6.82697392    14.97740080
O        9.61602765    -9.38557236    12.24225298
O        6.84724421    -6.71873491    12.28068491
O        6.68045726    -9.52042452   -15.00603342
O        9.48360811    -6.90344631   -14.93665334
O        9.59345828    -9.46268943   -12.23399327
O        6.90044460    -9.54581713   -12.26221051
O        9.55129022    -6.64109044   -12.27081617
O        6.86666225    -6.84215405   -12.25631991
O        9.43468834    -9.58262924   -14.95361347
O        6.82204817    -6.76536414   -14.97707969
O        6.84973816    -9.53873764    -9.53068486
O        9.90101150    -6.88602104    -9.56874455
O        9.50586434    -9.55693764    -6.80300596
O        6.80250887    -9.55380681    -6.78869233
O        9.55876627    -6.84842733    -6.82384146
O        6.83202288    -6.82178879    -6.81527009
O        9.55728001    -9.58899506    -9.51541711
O        4.06162053    -4.08669585    -9.53061573
O        6.85853158    -9.51110742    -4.04340202
O        9.54199907    -6.80374705    -4.11583898
O        6.74244881    -9.47049029    -1.29269164
O        4.05995059    -9.50171313    -1.38507351
O        9.55954179    -6.75725475    -1.39992954
O        6.82746666    -6.76917334    -1.37471888
O        9.43908984    -9.44367185    -1.43788157
O        6.81629820    -6.80367116    -4.09664162
O        6.82475739    -4.18407212     1.36506128
O        9.48716900    -1.32978708     1.35768811
O        9.54881855    -4.03560885     4.08917718
O        6.80940141    -4.08581224     4.11568535
O        9.54335132    -1.34500128     4.08922393
O        6.81441783    -1.37882822     4.07613457
O        9.56670067    -4.01214110     1.36527061
O        6.71548094    -1.43803635     1.36162244
O        6.80742116    -4.06730928     6.85915702
O        9.52620153    -1.33141555     6.81801535
O        9.87642223    -4.01342387     9.55153764
O        9.54522478    -1.30497944     9.55780751
O        6.85214881    -1.46861101     9.51417197
O        9.52487954    -4.02885928     6.81570806
O        6.82533716    -1.32988243     6.80609371
O        6.81938684    -4.03456592    12.28421797
O        9.51293917    -1.36265700    12.34225029
O        9.48394059    -3.99244874    14.95172052
O        6.78265486    -4.08251503    15.03919570
O       12.16547298    -1.35050829    14.99145649
O        6.79651284    -1.36115555    14.96869100
O        9.53549224    -4.05983864    12.26540656
O        6.81397278    -1.35620920    12.24686257
O        6.92183750    -4.07013029   -14.98389534
O        9.48164360    -1.39097642   -14.67625048
O        9.54443813    -3.79263270   -12.25933571
O        6.81958587    -4.13400255   -12.25602189
O        9.49057278    -1.32619840    -9.95022484
O        7.17400887    -1.44104039   -12.33923185
O        9.67453517    -4.07799874   -14.96933937
O        6.78339179    -1.35580157   -15.03463758
O        6.82412054    -4.09256863    -6.81366012
O        6.83045783    -1.44441226    -9.45930673
O        9.54621948    -4.14857869    -6.77009499
O        9.47431206    -1.32602019    -6.91229431
O        6.78255676    -1.36858937    -6.77936073
O        9.41944666    -4.17347138    -9.58772409
O        6.75297419    -4.12822233    -9.53259992
O        6.81495248    -4.08177719    -4.09589762
O        9.54274738    -1.35445978    -4.14644350
O        9.52178650    -4.03951835    -1.36773154
O        6.80601074    -4.07124635    -1.36202491
O        9.54088175    -1.31791956    -1.39279398
O        6.82924198    -1.36499431    -1.34986788
O        9.53237582    -4.06578483    -4.08592412
O        6.82424087    -1.35248209    -4.07064223
O       14.77815453     4.00668050     1.27214834
O       14.94167192     1.43107362     4.03909628
O       12.21870771     1.32483613     4.07198445
O       15.07712408     4.15809255     4.11860239
O       12.25576217     4.05188224     3.88833592
O       15.00557691     1.32338451     1.32305751
O       12.28475380     1.71782281     1.35667801
O       12.34419667     1.41922290     6.78770210
O       14.91839124     4.19281996     6.78115709
O       14.92043908     1.34099815     9.56414565
O       12.21853162     1.15151010     9.47459314
O       14.98558864     4.12075591     9.61559826
O       12.28956951     3.98127423     9.48144650
O       15.11806184     1.32810036     6.73623412
O       12.22337219     4.11960171     6.70895585
O       12.20345985     1.44901579    12.17693279
O       14.98878100     4.10561985    12.30547416
O       15.04910178     1.45665605    15.05703305
O       12.21339897     1.46237038    15.03033917
O       15.00608000     4.14658360    15.01493677
O       12.26743642     4.14038890    14.98934057
O       15.04926019     1.43642277    12.22806840
O       12.27798308     4.14611418    12.24953318
O       12.22346964     1.42908151   -15.01846903
O       14.99107269     4.04701581   -15.00641012
O       15.04319815     1.47672827   -12.19565976
O       12.18934864     1.48087956   -12.17420074
O       15.01212965     4.15418002   -12.30293463
O       12.28933732     4.17572742   -12.25938611
O       15.05445521     1.26334357   -15.01126522
O       12.27292986     4.11817036   -14.98319362
O       12.26900737     1.35362593    -9.48688674
O       15.01611861     4.39726552    -9.55679580